TITLE = "Aircraft Slices"
VARIABLES = "x (m)", "y (m)", "z (m)", "x<sub>2D</sub>/c", "y<sub>2D</sub>/c"
ZONE T="<greek>h</greek> = 5.38602e-20 ", I= 85, F=POINT
0.998409 9.76141e-20 0.00159421 1 -2.17186e-19
0.998897 6.77063e-20 0.00110576 1.00049 -0.000490007
0.955786 4.86314e-08 -0.00441435 0.9573 -0.00594996
0.955786 4.86314e-08 -0.00441436 0.9573 -0.00594997
0.907512 1.00264e-07 -0.00777321 0.908944 -0.00923696
0.907512 1.00264e-07 -0.00777321 0.908943 -0.00923697
0.859233 1.51829e-07 -0.0110593 0.860582 -0.012451
0.859233 1.51829e-07 -0.0110593 0.860582 -0.012451
0.81095 2.03343e-07 -0.0142907 0.812218 -0.0156104
0.81095 2.03343e-07 -0.0142908 0.812218 -0.0156105
0.762665 2.54814e-07 -0.0174764 0.76385 -0.018724
0.762664 2.54815e-07 -0.0174765 0.76385 -0.018724
0.714376 3.06243e-07 -0.020616 0.71548 -0.0217913
0.714376 3.06243e-07 -0.020616 0.715479 -0.0217914
0.666084 3.57618e-07 -0.0236988 0.667105 -0.0248018
0.666083 3.57618e-07 -0.0236988 0.667105 -0.0248018
0.617786 4.08919e-07 -0.0267033 0.618727 -0.0277338
0.617786 4.0892e-07 -0.0267033 0.618726 -0.0277339
0.569482 4.60116e-07 -0.0295957 0.570341 -0.0305536
0.569482 4.60117e-07 -0.0295957 0.57034 -0.0305536
0.521169 5.11163e-07 -0.0323294 0.521946 -0.0332144
0.521168 5.11164e-07 -0.0323295 0.521946 -0.0332144
0.472844 5.62001e-07 -0.0348425 0.47354 -0.0356542
0.472843 5.62002e-07 -0.0348425 0.473539 -0.0356542
0.424504 6.12553e-07 -0.0370546 0.42512 -0.0377925
0.424503 6.12554e-07 -0.0370546 0.425119 -0.0377925
0.376149 6.62765e-07 -0.038912 0.376685 -0.0395755
0.376148 6.62766e-07 -0.038912 0.376684 -0.0395755
0.376148 6.62767e-07 -0.038912 0.376684 -0.0395755
0.327785 7.1274e-07 -0.0405221 0.328241 -0.0411108
0.327784 7.1274e-07 -0.0405221 0.328241 -0.0411108
0.27941 7.62339e-07 -0.041747 0.279787 -0.0422603
0.279409 7.6234e-07 -0.041747 0.279787 -0.0422603
0.231024 8.11335e-07 -0.0423568 0.231323 -0.0427937
0.231023 8.11336e-07 -0.0423568 0.231322 -0.0427937
0.182635 8.59389e-07 -0.0420223 0.182858 -0.0423812
0.182634 8.5939e-07 -0.0420222 0.182857 -0.0423812
0.13428 9.05961e-07 -0.0402391 0.134429 -0.0405179
0.134279 9.05962e-07 -0.040239 0.134428 -0.0405178
0.0860781 9.49993e-07 -0.0360691 0.0861569 -0.0362642
0.0860771 9.49994e-07 -0.036069 0.0861559 -0.036264
0.0385111 9.88864e-07 -0.0273732 0.0385282 -0.0274784
0.0385103 9.88864e-07 -0.0273726 0.0385273 -0.0274778
5.00001e-07 1e-06 0 0 0
0.0331086 9.32615e-07 0.0342785 0.0332156 0.0342801
0.0331094 9.32613e-07 0.0342792 0.0332164 0.0342808
0.0790518 8.70099e-07 0.0508515 0.0792584 0.050806
0.0790527 8.70098e-07 0.0508518 0.0792594 0.0508063
0.126641 8.11377e-07 0.0619835 0.126941 0.0618796
0.126642 8.11376e-07 0.0619837 0.126942 0.0618798
0.174915 7.55416e-07 0.0696721 0.175304 0.0695033
0.174916 7.55414e-07 0.0696723 0.175305 0.0695034
0.223529 7.0167e-07 0.0748031 0.224004 0.0745647
0.22353 7.01669e-07 0.0748032 0.224005 0.0745648
0.27232 6.49826e-07 0.0778556 0.272878 0.077544
0.272321 6.49825e-07 0.0778556 0.272879 0.077544
0.321191 5.99671e-07 0.079141 0.321828 0.0787533
0.321191 5.9967e-07 0.079141 0.321829 0.0787533
0.370077 5.51045e-07 0.0788806 0.370792 0.0784143
0.370078 5.51044e-07 0.0788806 0.370793 0.0784143
0.418938 5.03807e-07 0.0772574 0.419728 0.0767103
0.418939 5.03806e-07 0.0772573 0.419729 0.0767103
0.467756 4.57619e-07 0.0746267 0.46862 0.0739974
0.467757 4.57619e-07 0.0746267 0.46862 0.0739974
0.516522 4.12318e-07 0.0711627 0.517458 0.0704499
0.516523 4.12317e-07 0.0711626 0.517458 0.0704498
0.565229 3.67828e-07 0.0669453 0.566235 0.0661479
0.565229 3.67828e-07 0.0669452 0.566236 0.0661478
0.613871 3.24093e-07 0.0620385 0.614947 0.0611555
0.613871 3.24093e-07 0.0620385 0.614947 0.0611555
0.662444 2.81068e-07 0.0564906 0.663589 0.0555211
0.662445 2.81067e-07 0.0564906 0.663589 0.0555211
0.710944 2.38721e-07 0.0503368 0.712156 0.04928
0.710945 2.38721e-07 0.0503368 0.712156 0.0492799
0.759367 1.97035e-07 0.0436005 0.760645 0.0424554
0.759367 1.97035e-07 0.0436004 0.760645 0.0424554
0.807707 1.56002e-07 0.0362935 0.80905 0.0350595
0.807707 1.56002e-07 0.0362935 0.809051 0.0350595
0.855958 1.15627e-07 0.0284179 0.857365 0.0270942
0.855958 1.15627e-07 0.0284179 0.857365 0.0270942
0.904111 7.59262e-08 0.0199661 0.905581 0.0185519
0.904111 7.59262e-08 0.019966 0.905581 0.0185519
0.952156 3.69261e-08 0.0109212 0.953688 0.00941583
0.952156 3.6926e-08 0.0109212 0.953688 0.00941583
0.998409 9.76141e-20 0.00159421 1 -2.17186e-19
ZONE T="<greek>h</greek> = 0.0367845 ", I= 89, F=POINT
0.981172 0.0666667 -0.00216823 1 4.57546e-19
1.00749 0.0666667 0.00122462 1.02775 0.00364305
0.97654 0.0666667 0.00745043 0.995089 0.0101368
0.961235 0.0666667 0.0105489 0.978934 0.0133688
0.950639 0.0666667 0.0125855 0.967751 0.0154919
0.915406 0.0666667 0.0191835 0.930563 0.022368
0.903657 0.0666667 0.0212923 0.918162 0.0245644
0.876987 0.0666668 0.025992 0.890013 0.0294584
0.844563 0.0666668 0.0313765 0.855792 0.0350608
0.833901 0.0666668 0.0331586 0.844539 0.0369153
0.821901 0.0666668 0.035025 0.831875 0.0388555
0.789736 0.0666668 0.0400068 0.797927 0.0440337
0.768057 0.0666669 0.0431259 0.775049 0.0472722
0.744537 0.0666669 0.0464984 0.750226 0.0507734
0.715051 0.0666669 0.0504337 0.719108 0.0548542
0.706415 0.0666669 0.0515631 0.709994 0.0560249
0.674503 0.0666669 0.0554822 0.676316 0.0600826
0.652814 0.066667 0.0580403 0.653427 0.0627291
0.625159 0.066667 0.0610545 0.624244 0.0658425
0.604788 0.066667 0.0631647 0.602747 0.0680196
0.584569 0.066667 0.0651358 0.581411 0.0700503
0.560275 0.066667 0.0672208 0.555774 0.0721915
0.537648 0.0666671 0.069221 0.531898 0.0742471
0.497446 0.0666671 0.0721295 0.489477 0.0772187
0.49448 0.0666671 0.0723399 0.486347 0.0774335
0.492507 0.0666671 0.0724476 0.484265 0.0775423
0.448812 0.0666671 0.0749087 0.438159 0.0800334
0.415349 0.0666672 0.076159 0.402852 0.0812717
0.404085 0.0666672 0.0765989 0.390967 0.0817086
0.374732 0.0666672 0.0770747 0.359998 0.0821398
0.370697 0.0666672 0.077134 0.35574 0.0821926
0.36786 0.0666672 0.0770972 0.352748 0.0821469
0.330484 0.0666673 0.0767358 0.313316 0.0816754
0.314061 0.0666673 0.0764136 0.29599 0.0812959
0.278443 0.0666673 0.0747165 0.258417 0.0794195
0.266935 0.0666673 0.0740405 0.246277 0.0786785
0.243994 0.0666674 0.0722044 0.222077 0.0766859
0.217916 0.0666674 0.0692358 0.194572 0.0734911
0.199991 0.0666674 0.0673657 0.175665 0.0714748
0.162408 0.0666674 0.0613372 0.136029 0.0650239
0.159258 0.0666674 0.0608594 0.132707 0.0645122
0.153477 0.0666675 0.0595798 0.12661 0.0631482
0.11455 0.0666675 0.050704 0.0855629 0.0536901
0.0964912 0.0666675 0.0442411 0.0665259 0.0468279
0.067251 0.0666676 0.0340702 0.0357013 0.0360268
0.0507818 0.0666676 0.0172211 0.0183666 0.0182108
0.0333338 0.0666676 0 0 0
0.0531201 0.0666676 -0.0142879 0.0209096 -0.0150264
0.0704085 0.0666676 -0.0265736 0.0391789 -0.0279464
0.0995709 0.0666676 -0.0318155 0.0699586 -0.0334064
0.120874 0.0666676 -0.035578 0.0924435 -0.0373244
0.147412 0.0666676 -0.0377598 0.120447 -0.0395623
0.168931 0.0666675 -0.0394558 0.143154 -0.0412997
0.196845 0.0666675 -0.0403943 0.172606 -0.0422224
0.217436 0.0666675 -0.0410438 0.194331 -0.042858
0.248828 0.0666675 -0.0411989 0.227451 -0.0429458
0.262202 0.0666674 -0.0412376 0.241561 -0.0429544
0.292845 0.0666674 -0.0408313 0.27389 -0.0424517
0.311307 0.0666674 -0.0405441 0.293367 -0.0421042
0.326218 0.0666674 -0.0401619 0.309098 -0.041665
0.349309 0.0666674 -0.0395686 0.333458 -0.0409833
0.370546 0.0666673 -0.0388902 0.355861 -0.0402164
0.388724 0.0666673 -0.0382881 0.375039 -0.0395372
0.409109 0.0666673 -0.0375587 0.396543 -0.0387185
0.430317 0.0666673 -0.036705 0.418916 -0.0377667
0.453686 0.0666672 -0.0357999 0.443569 -0.0367553
0.479323 0.0666672 -0.0346156 0.470614 -0.035444
0.499814 0.0666672 -0.0336455 0.49223 -0.0343711
0.515556 0.0666672 -0.0328104 0.508837 -0.0334521
0.552639 0.0666671 -0.0308493 0.547955 -0.0312935
0.572028 0.0666671 -0.0297354 0.568408 -0.0300716
0.599826 0.0666671 -0.0281358 0.597732 -0.0283168
0.639604 0.0666671 -0.0257284 0.639693 -0.0256809
0.647075 0.066667 -0.025275 0.647574 -0.0251846
0.652379 0.066667 -0.0249425 0.653169 -0.024821
0.696271 0.066667 -0.0221896 0.69947 -0.0218106
0.706721 0.066667 -0.0215197 0.710493 -0.0210787
0.743003 0.0666669 -0.0191884 0.748766 -0.0185316
0.757395 0.0666669 -0.0182491 0.763948 -0.0175058
0.780517 0.0666669 -0.016741 0.788339 -0.0158589
0.800045 0.0666669 -0.0154554 0.808938 -0.0144554
0.828641 0.0666669 -0.0135607 0.839102 -0.0123875
0.85442 0.0666668 -0.0118385 0.866297 -0.0105083
0.876769 0.0666668 -0.0103332 0.889871 -0.00886619
0.904488 0.0666668 -0.00844938 0.919111 -0.00681185
0.92156 0.0666668 -0.0072773 0.93712 -0.00553407
0.957035 0.0666667 -0.00481067 0.974541 -0.00284609
0.967438 0.0666667 -0.00408085 0.985514 -0.00205101
0.981172 0.0666667 -0.00216823 1 0
ZONE T="<greek>h</greek> = 0.0735689 ", I= 90, F=POINT
0.987787 0.133333 -0.00227167 1 4.70818e-19
1.01489 0.133333 0.00119202 1.02942 0.00383284
0.985487 0.133333 0.00712319 0.997478 0.0101932
0.969782 0.133333 0.0102905 0.980419 0.0135897
0.960309 0.133333 0.0120749 0.970131 0.0155015
0.924229 0.133333 0.0188706 0.930942 0.0227824
0.890366 0.133333 0.0248319 0.894164 0.0291635
0.88187 0.133333 0.0263281 0.884937 0.0307651
0.869828 0.133333 0.0283136 0.871859 0.0328884
0.839804 0.133333 0.0332552 0.83925 0.0381727
0.819794 0.133333 0.0363219 0.817519 0.0414485
0.797786 0.133333 0.0397078 0.793618 0.0450654
0.762848 0.133334 0.0446924 0.755675 0.0503832
0.755892 0.133334 0.0456812 0.748119 0.0514381
0.751273 0.133334 0.0462845 0.743103 0.0520807
0.713645 0.133334 0.0512333 0.702241 0.0573525
0.680397 0.133334 0.0552139 0.666135 0.061585
0.670709 0.133334 0.0563826 0.655614 0.0628278
0.656902 0.133334 0.0578773 0.640621 0.0644135
0.627462 0.133334 0.0610424 0.608652 0.0677708
0.608864 0.133334 0.0627976 0.588457 0.0696266
0.585725 0.133334 0.0650107 0.56333 0.0719672
0.551322 0.133334 0.0678309 0.525973 0.0749367
0.543115 0.133334 0.0684923 0.517062 0.0756329
0.537545 0.133334 0.0688555 0.511014 0.0760122
0.500549 0.133334 0.071339 0.470843 0.0786093
0.466605 0.133334 0.0730507 0.433988 0.0803767
0.45792 0.133334 0.0735077 0.424558 0.0808495
0.444335 0.133334 0.073954 0.409809 0.0812977
0.415609 0.133334 0.0748196 0.378621 0.0821605
0.396686 0.133334 0.0748728 0.358077 0.0821676
0.372878 0.133334 0.0750419 0.33223 0.0822875
0.337518 0.133334 0.0742265 0.293845 0.0813075
0.329387 0.133334 0.0740026 0.285018 0.0810427
0.324016 0.133334 0.0736664 0.279188 0.0806633
0.286456 0.133334 0.0715281 0.238418 0.0782413
0.252978 0.133334 0.0683295 0.202081 0.0746793
0.246345 0.133334 0.0677411 0.194882 0.0740227
0.236819 0.133334 0.0665119 0.184544 0.0726628
0.209648 0.133334 0.0627093 0.155056 0.0684618
0.195033 0.133334 0.0600377 0.139197 0.0655223
0.178925 0.133334 0.0572135 0.121717 0.0624132
0.154647 0.133334 0.0512843 0.095376 0.0559112
0.141251 0.133334 0.048108 0.080842 0.0524271
0.105509 0.133334 0.035199 0.0420738 0.038317
0.0986622 0.133334 0.0327433 0.034647 0.0356327
0.0734844 0.133334 0.00696959 0.00738236 0.00758463
0.0666671 0.133334 0 0 0
0.0757837 0.133334 -0.00637582 0.00991428 -0.00689736
0.103948 0.133334 -0.0261124 0.0405425 -0.0282485
0.109459 0.133334 -0.0270866 0.0465288 -0.0292915
0.154581 0.133334 -0.0349379 0.0955353 -0.0376942
0.158892 0.133334 -0.0352773 0.100217 -0.0380512
0.202302 0.133334 -0.0385909 0.147352 -0.0415322
0.210259 0.133334 -0.0388402 0.155991 -0.0417815
0.247863 0.133334 -0.0399825 0.196818 -0.042921
0.260033 0.133334 -0.0400173 0.21003 -0.0429262
0.291722 0.133334 -0.0401268 0.244433 -0.0429603
0.305377 0.133334 -0.0399606 0.259257 -0.0427432
0.328636 0.133334 -0.0396332 0.284506 -0.0423255
0.343916 0.133334 -0.0392891 0.301094 -0.0419111
0.381867 0.133334 -0.0382856 0.342292 -0.04072
0.387838 0.133334 -0.03809 0.348774 -0.0404916
0.433714 0.133334 -0.0365145 0.398575 -0.0386585
0.434 0.133334 -0.0365035 0.398884 -0.0386458
0.436268 0.133334 -0.036412 0.401347 -0.0385403
0.479979 0.133334 -0.0346584 0.448796 -0.0365195
0.485756 0.133334 -0.0344103 0.455067 -0.0362347
0.525957 0.133334 -0.0324754 0.498705 -0.0340266
0.537908 0.133334 -0.0318715 0.511678 -0.033339
0.573801 0.133334 -0.029925 0.550638 -0.0311296
0.590554 0.133334 -0.0289874 0.568824 -0.030067
0.620041 0.133334 -0.0272628 0.600832 -0.0281157
0.642361 0.133334 -0.0259292 0.625059 -0.0266081
0.665737 0.133334 -0.0244944 0.650433 -0.0249879
0.694399 0.133334 -0.0227087 0.681544 -0.0229726
0.711754 0.133334 -0.0216091 0.700383 -0.0217323
0.746817 0.133334 -0.0193645 0.738442 -0.0192016
0.757513 0.133334 -0.0186719 0.750052 -0.0184211
0.799159 0.133334 -0.0159549 0.795257 -0.0153599
0.802958 0.133334 -0.015705 0.79938 -0.0150785
0.834085 0.133334 -0.0136428 0.833167 -0.0127564
0.849205 0.133333 -0.0126416 0.849579 -0.0116289
0.851172 0.133333 -0.0125103 0.851714 -0.0114812
0.893531 0.133333 -0.00966099 0.897693 -0.00827442
0.904309 0.133333 -0.00892835 0.909392 -0.00745018
0.932574 0.133333 -0.00699435 0.940072 -0.00527491
0.962922 0.133333 -0.00487915 0.973013 -0.00289733
0.972461 0.133333 -0.00421597 0.983366 -0.00215183
0.987787 0.133333 -0.00227167 1 4.70818e-19
ZONE T="<greek>h</greek> = 0.110353 ", I= 85, F=POINT
1.01441 0.2 0.00274588 1 4.7427e-19
1.0223 0.2 0.00115943 1.00861 -0.00176081
1.0144 0.2 0.000168412 0.999976 -0.00281864
0.979582 0.2 -0.00420246 0.961885 -0.00748423
0.949369 0.2 -0.00630958 0.928839 -0.00968934
0.947139 0.2 -0.00646475 0.926399 -0.00985171
0.911834 0.2 -0.00888148 0.887782 -0.0123787
0.89982 0.2 -0.00969701 0.874641 -0.0132311
0.865787 0.2 -0.011984 0.837415 -0.0156203
0.847726 0.2 -0.0131881 0.81766 -0.0168778
0.819907 0.2 -0.0150273 0.787232 -0.0187977
0.795698 0.2 -0.0166165 0.760752 -0.0204562
0.773866 0.2 -0.0180365 0.736872 -0.0219375
0.743647 0.2 -0.0199861 0.703819 -0.0239702
0.727922 0.2 -0.0209879 0.686618 -0.0250141
0.691616 0.2 -0.0232748 0.646907 -0.0273959
0.681981 0.2 -0.0238698 0.636369 -0.0280149
0.639529 0.2 -0.0264481 0.589935 -0.0306951
0.635959 0.2 -0.0266581 0.58603 -0.0309131
0.60767 0.2 -0.0282813 0.555088 -0.0325952
0.589666 0.2 -0.0293163 0.535396 -0.033668
0.587364 0.2 -0.0294448 0.532879 -0.033801
0.542568 0.2 -0.0318004 0.483882 -0.0362299
0.53445 0.2 -0.0322092 0.475003 -0.0366502
0.496514 0.200001 -0.0339387 0.433511 -0.0384171
0.48237 0.200001 -0.0345427 0.418041 -0.0390311
0.450538 0.200001 -0.0357407 0.383226 -0.0402368
0.430182 0.200001 -0.036469 0.360963 -0.0409664
0.404506 0.200001 -0.0372751 0.332881 -0.0417636
0.377955 0.200001 -0.0380376 0.303843 -0.0425103
0.358301 0.200001 -0.0384405 0.282348 -0.0428863
0.327149 0.200001 -0.0389571 0.248279 -0.0433489
0.31251 0.200001 -0.0389885 0.23227 -0.0433352
0.278872 0.200001 -0.0389231 0.195484 -0.0431532
0.265829 0.200001 -0.038581 0.181222 -0.0427363
0.23471 0.200001 -0.0376687 0.147193 -0.0416364
0.216936 0.200001 -0.0363796 0.127759 -0.0401683
0.187078 0.200001 -0.034153 0.0951151 -0.0376353
0.16659 0.200001 -0.0306545 0.0727211 -0.033742
0.137284 0.200001 -0.0256148 0.0406892 -0.0281345
0.119875 0.200001 -0.0136107 0.02169 -0.0149497
0.1 0.200001 0 0 0
0.117346 0.200001 0.0179104 0.0190275 0.0195297
0.130267 0.200001 0.0315064 0.0332029 0.0343557
0.162797 0.200001 0.0430692 0.0688145 0.0468938
0.173179 0.200001 0.0469434 0.0801818 0.0510964
0.189998 0.200001 0.051124 0.0985877 0.055613
0.21206 0.200001 0.0561797 0.122732 0.0610694
0.233055 0.200001 0.0596236 0.145702 0.0647667
0.252648 0.200001 0.0630522 0.16714 0.0684518
0.279585 0.200001 0.0662732 0.196609 0.0718858
0.295034 0.200001 0.0679938 0.213509 0.0737168
0.305557 0.200001 0.0687134 0.22502 0.0744691
0.337602 0.200001 0.0711164 0.260071 0.0769917
0.376838 0.200001 0.0725881 0.302984 0.0784724
0.38026 0.200001 0.0727356 0.306727 0.0786225
0.385379 0.200001 0.0727852 0.312325 0.0786598
0.422971 0.200001 0.0729935 0.353436 0.0787642
0.447998 0.2 0.0724106 0.380804 0.0780445
0.465633 0.2 0.072069 0.400088 0.0776131
0.492135 0.2 0.0709085 0.429067 0.0762569
0.508275 0.2 0.0701661 0.446715 0.075392
0.518942 0.2 0.0694881 0.458377 0.0746155
0.550853 0.2 0.067525 0.493268 0.072364
0.59008 0.2 0.0644798 0.536156 0.0689049
0.593604 0.2 0.0642124 0.540009 0.0686009
0.598869 0.2 0.0637341 0.545765 0.0680606
0.63608 0.2 0.0603106 0.586448 0.0641945
0.660682 0.2 0.057715 0.613344 0.0612752
0.678506 0.2 0.0558562 0.632829 0.0591839
0.705391 0.2 0.0527072 0.662221 0.0556518
0.720872 0.2 0.0508818 0.679144 0.0536048
0.7311 0.2 0.0495526 0.690326 0.0521176
0.763177 0.2 0.0454116 0.72539 0.0474837
0.801578 0.2 0.0400016 0.767367 0.0414413
0.805443 0.2 0.0394599 0.771593 0.0408362
0.811281 0.2 0.0385734 0.777974 0.0398476
0.847616 0.2 0.0330401 0.817692 0.0336771
0.871787 0.2 0.0290797 0.844112 0.0292667
0.889815 0.2 0.0261343 0.863817 0.0259865
0.918266 0.2 0.0211447 0.894914 0.0204365
0.933003 0.2 0.0185563 0.911022 0.0175574
0.942611 0.2 0.0167478 0.921523 0.0155482
0.976739 0.2 0.0103364 0.958824 0.00842463
1.01441 0.2 0.00274588 1 -1.42281e-18
ZONE T="<greek>h</greek> = 0.147138 ", I= 85, F=POINT
0.995443 0.266667 -0.00313429 1 0
1.0297 0.266667 0.00112683 1.03972 0.00508707
0.993444 0.266667 0.00840361 0.997633 0.0133747
0.981353 0.266667 0.0108346 0.983598 0.0161436
0.962014 0.266667 0.0144485 0.96115 0.0202538
0.937978 0.266667 0.0189275 0.933251 0.0253479
0.923383 0.266667 0.0214605 0.916311 0.0282243
0.896079 0.266667 0.0262201 0.884621 0.03363
0.858972 0.266667 0.0322441 0.841554 0.040461
0.854891 0.266667 0.032904 0.836817 0.0412092
0.851985 0.266667 0.0333396 0.833445 0.0417023
0.812886 0.266667 0.0392327 0.788067 0.048373
0.782501 0.266667 0.0434502 0.752805 0.0531368
0.770905 0.266667 0.045069 0.739348 0.0549656
0.752867 0.266667 0.0473696 0.718416 0.0575581
0.728674 0.266667 0.0504386 0.690341 0.0610159
0.712901 0.266667 0.0522395 0.672037 0.0630383
0.686336 0.266667 0.0553014 0.64121 0.0664778
0.646201 0.266667 0.0593961 0.59464 0.0710581
0.643857 0.266667 0.0596327 0.59192 0.0713227
0.642291 0.266667 0.0597682 0.590103 0.0714732
0.601247 0.266667 0.0633831 0.542479 0.0754932
0.571433 0.266667 0.0655459 0.507888 0.0778762
0.558648 0.266667 0.0664973 0.493054 0.0789258
0.539493 0.266667 0.0676006 0.470831 0.0801247
0.516015 0.266667 0.0689086 0.443593 0.081543
0.500393 0.266667 0.0694604 0.42547 0.0821171
0.473342 0.266667 0.0705025 0.394089 0.0832118
0.432621 0.266667 0.0709785 0.346854 0.0835923
0.430639 0.266667 0.0709942 0.344555 0.0836021
0.429325 0.266667 0.0709624 0.343031 0.0835597
0.387958 0.266667 0.0701781 0.295051 0.0824754
0.358077 0.266667 0.068548 0.260398 0.0804587
0.345329 0.266667 0.0679301 0.245613 0.0796882
0.326549 0.266667 0.0662633 0.223837 0.0776756
0.302874 0.266667 0.0639874 0.196384 0.0749359
0.286255 0.266667 0.0615384 0.177118 0.0720252
0.260765 0.266667 0.0580287 0.147566 0.0678466
0.223149 0.266667 0.0503002 0.103968 0.0587235
0.216147 0.266667 0.0487658 0.0958514 0.0569141
0.213554 0.266667 0.0479789 0.0928478 0.0559905
0.199058 0.266667 0.0429753 0.0760541 0.0501255
0.17058 0.266667 0.033636 0.0430614 0.0391724
0.164799 0.266667 0.0314541 0.0363652 0.0366173
0.144574 0.266668 0.01114 0.0129906 0.012969
0.133334 0.266668 0 0 0
0.153131 0.266668 -0.0132981 0.0230198 -0.0153414
0.170706 0.266668 -0.0251483 0.0434549 -0.0290127
0.174054 0.266668 -0.0257199 0.0473406 -0.0296616
0.220102 0.266667 -0.0334181 0.100786 -0.0383968
0.223859 0.266667 -0.0336901 0.105146 -0.0386964
0.268572 0.266667 -0.0368018 0.157022 -0.0421173
0.274337 0.266667 -0.0369526 0.16371 -0.0422679
0.31749 0.266667 -0.0379334 0.213769 -0.0432235
0.3241 0.266667 -0.03792 0.221435 -0.0431801
0.372938 0.266667 -0.0376151 0.278083 -0.0426205
0.373608 0.266667 -0.0376016 0.27886 -0.042602
0.378884 0.266667 -0.0374758 0.284979 -0.0424338
0.421202 0.266667 -0.0364805 0.33406 -0.0411009
0.426647 0.266667 -0.0363321 0.340376 -0.0409057
0.46722 0.266667 -0.0349801 0.387432 -0.0391665
0.479001 0.266667 -0.0345646 0.401096 -0.0386348
0.513487 0.266667 -0.0332001 0.441091 -0.0369067
0.531259 0.266667 -0.0324465 0.461703 -0.0359576
0.559579 0.266667 -0.031089 0.494546 -0.0342636
0.583637 0.266667 -0.0298741 0.522446 -0.032753
0.606169 0.266667 -0.0286502 0.548577 -0.0312383
0.635993 0.266667 -0.0269749 0.583164 -0.0291693
0.652567 0.266667 -0.0260015 0.602384 -0.0279703
0.688154 0.266667 -0.023865 0.643653 -0.0253421
0.698632 0.266667 -0.0232187 0.655804 -0.0245481
0.74033 0.266667 -0.0206083 0.704161 -0.0213445
0.744732 0.266667 -0.0203281 0.709266 -0.0210009
0.77782 0.266667 -0.0182005 0.747636 -0.0183935
0.790835 0.266667 -0.0173643 0.762729 -0.0173686
0.792547 0.266667 -0.0172532 0.764715 -0.0172326
0.836393 0.266667 -0.0143823 0.81556 -0.0137176
0.844166 0.266667 -0.0138696 0.824574 -0.0130902
0.882454 0.266667 -0.0113221 0.868975 -0.00997376
0.89634 0.266667 -0.0103908 0.885078 -0.00883492
0.932475 0.266667 -0.00794013 0.926981 -0.00583999
0.946909 0.266667 -0.00695478 0.94372 -0.00463617
0.976336 0.266667 -0.00490852 0.977845 -0.00213856
0.987404 0.266667 -0.00413947 0.99068 -0.00119984
0.995443 0.266667 -0.00313429 1 1.00609e-18
ZONE T="<greek>h</greek> = 0.183922 ", I= 81, F=POINT
1.01348 0.333333 -0.00156208 1 0
1.03711 0.333333 0.00109424 1.0279 0.0031883
1.01328 0.333333 0.0058747 0.999742 0.00878161
0.988966 0.333333 0.0107514 0.971025 0.0144875
0.976937 0.333333 0.0129779 0.956816 0.0170906
0.941542 0.333333 0.0195433 0.915003 0.0247666
0.900888 0.333333 0.0265351 0.866981 0.0329346
0.89986 0.333333 0.0267128 0.865766 0.0331421
0.89857 0.333333 0.0269203 0.864242 0.0333844
0.859237 0.333333 0.0332115 0.81778 0.040728
0.830042 0.333333 0.0375396 0.783295 0.0457754
0.819337 0.333333 0.0391373 0.770649 0.0476387
0.801995 0.333333 0.0415179 0.750165 0.0504122
0.778349 0.333334 0.0447487 0.722235 0.054176
0.763923 0.333334 0.0465399 0.705195 0.0562597
0.736461 0.333334 0.0499772 0.672758 0.060259
0.694443 0.333334 0.0546885 0.623129 0.065731
0.694032 0.333334 0.0547351 0.622643 0.0657851
0.693403 0.333334 0.0547977 0.6219 0.0658578
0.651592 0.333334 0.0589167 0.572517 0.0706307
0.623823 0.333334 0.0612349 0.53972 0.0733078
0.608959 0.333334 0.0625006 0.522164 0.0747701
0.586763 0.333334 0.0640317 0.49595 0.0765298
0.566376 0.333334 0.0654037 0.471871 0.0781056
0.552838 0.333334 0.0660648 0.455884 0.0788568
0.523733 0.333334 0.0675596 0.42151 0.0805586
0.481807 0.333334 0.0687642 0.371997 0.0818898
0.481045 0.333334 0.0687889 0.371097 0.0819173
0.4799 0.333334 0.0687928 0.369745 0.0819194
0.438256 0.333334 0.0687648 0.320568 0.0817956
0.410465 0.333334 0.0677951 0.287753 0.0805899
0.395319 0.333334 0.0673542 0.269868 0.0800363
0.373024 0.333334 0.0658495 0.243543 0.0782108
0.352437 0.333334 0.064323 0.219234 0.0763634
0.337246 0.333334 0.0624397 0.2013 0.0741063
0.30854 0.333334 0.0591663 0.167408 0.0701783
0.286497 0.333334 0.0556119 0.141385 0.0659329
0.26872 0.333334 0.0521048 0.1204 0.0617526
0.238347 0.333334 0.0450272 0.084548 0.0533286
0.217243 0.333334 0.0377238 0.0596432 0.0446581
0.190492 0.333334 0.0276215 0.0280748 0.03267
0.179405 0.333334 0.0156357 0.0150076 0.0184919
0.166667 0.333334 0 0 0
0.184299 0.333334 -0.0116746 0.020847 -0.0137481
0.204052 0.333334 -0.0246833 0.0442015 -0.0290669
0.231657 0.333334 -0.0291806 0.07681 -0.0343176
0.253732 0.333334 -0.0327344 0.102886 -0.0384662
0.281822 0.333334 -0.0345969 0.136062 -0.0406045
0.302113 0.333334 -0.0359024 0.160025 -0.042102
0.338068 0.333334 -0.0365625 0.202486 -0.0428031
0.354378 0.333334 -0.036877 0.221747 -0.0431389
0.375167 0.333334 -0.0367631 0.246297 -0.0429592
0.397016 0.333334 -0.0365446 0.272097 -0.0426535
0.424316 0.333334 -0.0360122 0.304335 -0.0419654
0.438062 0.333334 -0.0356415 0.320567 -0.0414977
0.475313 0.333334 -0.0345204 0.364554 -0.0400926
0.484167 0.333334 -0.0342092 0.375009 -0.0397058
0.527562 0.333334 -0.0326024 0.42625 -0.0377138
0.530431 0.333334 -0.0324815 0.429637 -0.0375648
0.55247 0.333334 -0.031485 0.455662 -0.0363401
0.576617 0.333334 -0.0303991 0.484174 -0.0350051
0.579782 0.333334 -0.0302474 0.487911 -0.0348191
0.623092 0.333334 -0.0279757 0.53905 -0.0320421
0.632366 0.333334 -0.0274693 0.550002 -0.031424
0.669207 0.333334 -0.0253474 0.593502 -0.0288379
0.684531 0.333334 -0.0244417 0.611596 -0.027735
0.715359 0.333334 -0.0225602 0.647996 -0.025446
0.736813 0.333334 -0.0212285 0.673329 -0.0238267
0.761453 0.333334 -0.019669 0.702423 -0.0219314
0.78883 0.333334 -0.017917 0.734748 -0.0198029
0.807201 0.333334 -0.0167268 0.75644 -0.0183572
0.841031 0.333334 -0.0145167 0.796385 -0.0156737
0.85313 0.333333 -0.0137191 0.810671 -0.0147054
0.892796 0.333333 -0.0110841 0.857506 -0.0115074
0.899206 0.333333 -0.0106544 0.865075 -0.010986
0.936615 0.333333 -0.00812543 0.909245 -0.00791807
0.941472 0.333333 -0.00779724 0.914981 -0.00751993
0.942174 0.333333 -0.00774944 0.915809 -0.00746196
0.977603 0.333333 -0.00530617 0.957642 -0.00449953
0.986216 0.333333 -0.00470811 0.967811 -0.00377453
1.01348 0.333333 -0.00156208 1 5.12132e-19
ZONE T="<greek>h</greek> = 0.220707 ", I= 81, F=POINT
1.03461 0.4 0.00308479 1 0
1.04451 0.4 0.00106164 1.01186 -0.0024679
1.02812 0.4 -0.000915827 0.992213 -0.00476463
1.00204 0.4 -0.00408464 0.960943 -0.00844583
0.966295 0.4 -0.00655997 0.918109 -0.0112534
0.957767 0.4 -0.00715208 0.907888 -0.011925
0.948654 0.4 -0.00777227 0.896967 -0.0126278
0.916008 0.4 -0.00998087 0.857843 -0.0151294
0.890604 0.4 -0.0116806 0.827397 -0.0170535
0.87118 0.4 -0.0129685 0.804119 -0.0185106
0.837986 0.4 -0.0151522 0.764338 -0.02098
0.824735 0.4 -0.0160154 0.748457 -0.0219556
0.78591 0.4 -0.0185219 0.701928 -0.0247868
0.778822 0.4 -0.0189732 0.693433 -0.0252961
0.733163 0.4 -0.0218434 0.638714 -0.0285328
0.732124 0.4 -0.0219073 0.637468 -0.0286048
0.724336 0.4 -0.0223764 0.628136 -0.0291324
0.685956 0.4 -0.0246922 0.58214 -0.0317371
0.680868 0.4 -0.0249923 0.576043 -0.0320742
0.63975 0.4 -0.0273098 0.526767 -0.0346687
0.628599 0.4 -0.0279168 0.513404 -0.0353466
0.593537 0.4 -0.0296833 0.471386 -0.0373079
0.576204 0.4 -0.0305102 0.450614 -0.0382219
0.547255 0.4 -0.0317191 0.415923 -0.0395421
0.523834 0.400001 -0.0326314 0.387858 -0.0405315
0.500956 0.400001 -0.0334208 0.360442 -0.041376
0.471431 0.400001 -0.0343722 0.325064 -0.0423852
0.454115 0.400001 -0.0348049 0.304314 -0.0428269
0.420501 0.400001 -0.0355133 0.264036 -0.0435269
0.405703 0.400001 -0.0356465 0.246306 -0.0436209
0.380531 0.400001 -0.0357063 0.216145 -0.0435811
0.373022 0.400001 -0.0357358 0.207148 -0.0435832
0.339287 0.400001 -0.0350124 0.166732 -0.042567
0.332766 0.400001 -0.0348844 0.158919 -0.0423848
0.288827 0.400001 -0.0321041 0.106285 -0.0388589
0.286448 0.400001 -0.0319513 0.103436 -0.0386654
0.24049 0.400001 -0.0248655 0.0484028 -0.029972
0.238715 0.400001 -0.0245798 0.0462773 -0.0296218
0.229361 0.400001 -0.0186169 0.0350964 -0.022436
0.2 0.400001 0 0 0
0.216175 0.400001 0.0158563 0.0194494 0.0189266
0.230332 0.400001 0.0299228 0.0364746 0.0357177
0.235624 0.400001 0.0317444 0.0428229 0.0378769
0.272459 0.400001 0.0445125 0.0870132 0.0530119
0.282003 0.400001 0.0467335 0.0984588 0.0556308
0.314818 0.400001 0.0537549 0.137807 0.0638981
0.318962 0.400001 0.0545131 0.142775 0.0647882
0.324235 0.400001 0.0552086 0.149097 0.0655982
0.361379 0.400001 0.0604698 0.193624 0.0717374
0.391244 0.400001 0.0630978 0.229418 0.0747539
0.403148 0.400001 0.0642377 0.243687 0.076067
0.42121 0.400001 0.0651782 0.265332 0.0771138
0.445895 0.4 0.0663169 0.294913 0.0783689
0.462831 0.4 0.0664852 0.315205 0.0784955
0.488798 0.4 0.0668751 0.34632 0.0788477
0.527589 0.4 0.0661885 0.392794 0.0778532
0.531762 0.4 0.0660995 0.397794 0.0777281
0.534496 0.4 0.0659719 0.40107 0.0775632
0.574085 0.4 0.0642322 0.448495 0.0753034
0.60521 0.4 0.0622596 0.485779 0.0728021
0.616715 0.4 0.0615564 0.49956 0.0719086
0.63405 0.4 0.0601908 0.520324 0.0701956
0.659287 0.4 0.0581645 0.550554 0.067656
0.676011 0.4 0.0565605 0.570585 0.0656602
0.701805 0.4 0.0541258 0.601479 0.0626287
0.742581 0.4 0.0496838 0.650314 0.057126
0.743118 0.4 0.0496261 0.650957 0.0570544
0.744069 0.4 0.0495108 0.652097 0.0569121
0.784459 0.4 0.0445815 0.700468 0.0508271
0.808033 0.4 0.0414045 0.7287 0.0469163
0.824106 0.4 0.0392604 0.747948 0.0442761
0.845275 0.4 0.0361854 0.773298 0.040498
0.862685 0.4 0.0336372 0.794146 0.0373678
0.877408 0.4 0.0313095 0.811777 0.0345137
0.903487 0.4 0.0272116 0.843006 0.0294882
0.936075 0.4 0.0216799 0.882026 0.0227162
0.946154 0.4 0.0199615 0.894095 0.0206126
0.957557 0.4 0.0178544 0.907747 0.0180375
0.993401 0.4 0.0112707 0.950665 0.00999043
1.00922 0.4 0.00819051 0.969606 0.00622986
1.03461 0.4 0.00308479 1 1.03924e-18
ZONE T="<greek>h</greek> = 0.257491 ", I= 79, F=POINT
1.02773 0.466667 0.00594667 1 0
1.05192 0.466667 0.00102905 1.0304 -0.00641796
1.00978 0.466667 -0.00401705 0.977308 -0.0123726
1.00957 0.466667 -0.00404162 0.977051 -0.0124016
1.0093 0.466667 -0.00406025 0.976713 -0.0124226
0.970972 0.466667 -0.00671729 0.928437 -0.0154059
0.939706 0.466667 -0.00884325 0.889061 -0.0177874
0.932531 0.466667 -0.00932756 0.880026 -0.0183294
0.895129 0.466667 -0.0118251 0.832922 -0.0211207
0.888051 0.466667 -0.012298 0.824009 -0.0216493
0.886857 0.466667 -0.0123771 0.822504 -0.0217377
0.84181 0.466667 -0.0153343 0.765773 -0.0250355
0.834509 0.466667 -0.0158096 0.756579 -0.025565
0.795604 0.466667 -0.0183121 0.707584 -0.0283484
0.782164 0.466667 -0.0191671 0.690658 -0.029298
0.749378 0.466667 -0.0212135 0.64937 -0.0315649
0.729707 0.466667 -0.0224206 0.624597 -0.0328991
0.702799 0.466667 -0.0240192 0.590712 -0.0346577
0.677178 0.466667 -0.0255011 0.558447 -0.0362816
0.656542 0.466667 -0.0266299 0.532462 -0.0375081
0.6248 0.466667 -0.0282951 0.492491 -0.0393051
0.610316 0.466667 -0.028985 0.474252 -0.040037
0.572476 0.466667 -0.0306679 0.426606 -0.0417988
0.56404 0.466667 -0.0309926 0.415984 -0.042128
0.520035 0.466667 -0.0325845 0.360577 -0.0437171
0.517746 0.466667 -0.0326556 0.357696 -0.0437851
0.499893 0.466667 -0.0331549 0.335219 -0.0442454
0.471347 0.466667 -0.0339611 0.299279 -0.0449913
0.467792 0.466667 -0.0340494 0.294803 -0.0450689
0.424691 0.466667 -0.0346124 0.240544 -0.0453714