TITLE = "Aircraft Slices"
VARIABLES = "x (m)", "y (m)", "z (m)", "x<sub>2D</sub>/c", "y<sub>2D</sub>/c"
ZONE T="<greek>h</greek> = 0.920541 ", I= 16, F=POINT
1.0117 1.8 -0.0116962 1 -1.54459e-17
0.976914 1.8 0.0230888 0.659705 0.275784
0.949832 1.8 0.0205453 0.422234 0.228147
0.949832 1.8 0.0205453 0.422234 0.228146
0.922436 1.8 0.0148831 0.184876 0.1526
0.922435 1.8 0.014883 0.184875 0.152599
0.9 1.8 1.7321e-07 0 0
0.924514 1.8 -0.0106523 0.226963 -0.0716018
0.924514 1.8 -0.0106524 0.226965 -0.0716023
0.952152 1.8 -0.0125478 0.473464 -0.0627599
0.952152 1.8 -0.0125479 0.473465 -0.0627598
0.979864 1.8 -0.0125957 0.718919 -0.0374855
0.979864 1.8 -0.0125957 0.71892 -0.0374855
1.00757 1.8 -0.011859 0.963574 -0.00527195
1.00757 1.8 -0.011859 0.963574 -0.00527194
1.0117 1.8 -0.0116962 1 -1.54459e-17
ZONE T="<greek>h</greek> = 0.929064 ", I= 45, F=POINT
1.20123 1.81667 0.0284894 1 1.96251e-19
1.20836 1.81667 0.0292443 1.02583 0.00276795
1.19786 1.81667 0.0314647 0.987794 0.0107543
1.18392 1.81667 0.0343624 0.93731 0.0211755
1.17359 1.81667 0.0362747 0.899891 0.028047
1.15814 1.81667 0.0390906 0.843951 0.0381646
1.14377 1.81667 0.0414233 0.791916 0.0465383
1.13046 1.81667 0.0434703 0.743718 0.0538825
1.11604 1.81667 0.0454445 0.691513 0.060958
1.10242 1.81667 0.047153 0.642202 0.0670758
1.0894 1.81667 0.0485939 0.595065 0.0722275
1.07385 1.81667 0.0500606 0.538756 0.0774601
1.06019 1.81667 0.0511247 0.489315 0.0812446
1.04809 1.81667 0.0518603 0.445479 0.0838479
1.03499 1.81667 0.05213 0.398074 0.0847593
1.02217 1.81667 0.0526055 0.351647 0.0864169
1.0078 1.81667 0.0520553 0.299621 0.0843541
0.996522 1.81667 0.0518204 0.258808 0.0834476
0.985844 1.81667 0.0505 0.220158 0.0786148
0.964369 1.81667 0.0478848 0.142428 0.0690408
0.956453 1.81667 0.0443093 0.113789 0.0560575
0.948856 1.81667 0.0405796 0.0863054 0.0425178
0.934706 1.81667 0.0350678 0.0351058 0.0224939
0.925 1.81667 0.0288676 0 0
0.937921 1.81667 0.0229299 0.0468041 -0.0214315
0.948115 1.81667 0.0181215 0.0837333 -0.0387883
0.966764 1.81667 0.0168054 0.151251 -0.0434603
0.975712 1.81667 0.0162742 0.18365 -0.0453391
0.994131 1.81667 0.0162559 0.250329 -0.0453139
1.00232 1.81667 0.0163253 0.279964 -0.0450221
1.01991 1.81667 0.016817 0.343663 -0.0431549
1.02941 1.81667 0.0171384 0.378026 -0.0419444
1.04181 1.81667 0.0176524 0.42294 -0.040022
1.05482 1.81667 0.0182287 0.470014 -0.0378713
1.06865 1.81667 0.0189846 0.520104 -0.0350661
1.08035 1.81667 0.0196472 0.562458 -0.0326094
1.09645 1.81667 0.0206495 0.62073 -0.0289013
1.1074 1.81667 0.0213585 0.660351 -0.0262803
1.12489 1.81667 0.0225186 0.723654 -0.0219938
1.13489 1.81667 0.0232115 0.759876 -0.019436
1.15111 1.81667 0.0243224 0.818591 -0.0153337
1.16037 1.81667 0.0249837 0.852102 -0.0128941
1.17414 1.81667 0.0259537 0.901929 -0.00931404
1.18299 1.81667 0.0266015 0.933977 -0.00692518
1.20123 1.81667 0.0284894 1 -1.23638e-17
ZONE T="<greek>h</greek> = 0.937588 ", I= 47, F=POINT
1.20202 1.83333 0.0564948 1 0
1.21671 1.83333 0.0581117 1.05826 0.00670245
1.19973 1.83333 0.0619423 0.99083 0.0215703
1.19389 1.83333 0.0632088 0.96762 0.0264816
1.17912 1.83333 0.066111 0.908977 0.0377092
1.171 1.83333 0.0677304 0.876721 0.0439763
1.16894 1.83333 0.0681144 0.868524 0.0454595
1.15186 1.83333 0.0710119 0.800699 0.056623
1.14508 1.83333 0.0721692 0.773794 0.0610829
1.14405 1.83333 0.0723276 0.769696 0.0616912
1.12542 1.83333 0.0749505 0.695724 0.0717349
1.11686 1.83333 0.0761607 0.661717 0.0763699
1.11638 1.83333 0.0762185 0.659841 0.0765897
1.09135 1.83333 0.0789485 0.560446 0.0869334
1.08976 1.83333 0.0790763 0.554123 0.0874096
1.06335 1.83333 0.0809589 0.449329 0.0943638
1.06176 1.83333 0.0809918 0.442995 0.0944634
1.03406 1.83333 0.0813992 0.333095 0.0955389
1.03349 1.83333 0.0813468 0.330839 0.09532
1.00456 1.83333 0.0793086 0.216053 0.0866676
1.00408 1.83333 0.0790545 0.214169 0.0856501
1.00344 1.83333 0.0788025 0.211638 0.0846377
0.975483 1.83333 0.0696444 0.10088 0.047753
0.955632 1.83333 0.060367 0.0222949 0.0105536
0.952247 1.83333 0.058838 0.00889307 0.00442043
0.95 1.83333 0.057735 0 0
0.95356 1.83333 0.0560433 0.0141591 -0.00664291
0.972058 1.83333 0.0468398 0.0877378 -0.0428006
0.982588 1.83333 0.0462094 0.129531 -0.0450964
0.999492 1.83333 0.0450839 0.196629 -0.0492324
1.00446 1.83333 0.0451262 0.216345 -0.0489674
1.02048 1.83333 0.0451713 0.279906 -0.0484757
1.03801 1.83333 0.0457069 0.349455 -0.0460081
1.04431 1.83333 0.0458749 0.374455 -0.0452184
1.06471 1.83333 0.0467699 0.455361 -0.0412689
1.06914 1.83333 0.0469655 0.472953 -0.0404064
1.07038 1.83333 0.0470358 0.477864 -0.040103
1.0942 1.83333 0.0484134 0.572352 -0.0341719
1.10134 1.83333 0.0488772 0.600673 -0.032192
1.12312 1.83333 0.0503492 0.687055 -0.025926
1.13242 1.83333 0.0509929 0.723962 -0.0231901
1.1496 1.83333 0.0522426 0.792097 -0.017896
1.15114 1.83333 0.0523522 0.798196 -0.0174311
1.16979 1.83333 0.053731 0.872197 -0.011596
1.17374 1.83333 0.0540211 0.887858 -0.0103678
1.19151 1.83333 0.0553742 0.958323 -0.004652
1.20202 1.83333 0.0564948 1 0
ZONE T="<greek>h</greek> = 0.946111 ", I= 41, F=POINT
1.20927 1.85 0.0907308 1 3.70177e-18
1.22505 1.85 0.0869792 1.06703 -0.0171951
1.20377 1.85 0.0845657 0.976072 -0.0258943
1.19948 1.85 0.0840893 0.9577 -0.0276038
1.18775 1.85 0.0831571 0.907573 -0.0306997
1.17623 1.85 0.0822273 0.85834 -0.033801
1.17219 1.85 0.0819046 0.841089 -0.0348745
1.15378 1.85 0.080479 0.762409 -0.0395733
1.14072 1.85 0.0794925 0.706623 -0.042801
1.13016 1.85 0.0787086 0.661497 -0.045352
1.10596 1.85 0.0770415 0.558111 -0.050646
1.10303 1.85 0.0768427 0.545603 -0.0512743
1.09494 1.85 0.0763777 0.511048 -0.0526501
1.07832 1.85 0.0754318 0.440048 -0.0554364
1.07352 1.85 0.0752285 0.419554 -0.0559432
1.05538 1.85 0.0744612 0.342105 -0.0578536
1.04745 1.85 0.0742789 0.308227 -0.0580349
1.03183 1.85 0.0740555 0.241581 -0.0578138
1.02497 1.85 0.0739169 0.212283 -0.0578891
1.01023 1.85 0.0746035 0.149426 -0.0538507
0.99851 1.85 0.0752361 0.099466 -0.0502703
0.995 1.85 0.0770357 0.0846243 -0.0423269
0.975 1.85 0.0866024 0 0
0.992078 1.85 0.093335 0.0733815 0.0274447
1.00986 1.85 0.102828 0.149976 0.0666172
1.0144 1.85 0.104939 0.169486 0.0752833
1.01881 1.85 0.106818 0.188461 0.082971
1.04354 1.85 0.109156 0.294148 0.0910856
1.05547 1.85 0.110262 0.345164 0.0949103
1.07142 1.85 0.109932 0.413202 0.0923024
1.08614 1.85 0.109631 0.475966 0.08991
1.10034 1.85 0.108488 0.536506 0.083966
1.1142 1.85 0.107237 0.595565 0.0775824
1.12901 1.85 0.105419 0.658595 0.0687147
1.14141 1.85 0.103735 0.71138 0.0605959
1.15588 1.85 0.101465 0.772958 0.0498193
1.16957 1.85 0.0990466 0.831188 0.038471
1.1801 1.85 0.0971041 0.876003 0.0293895
1.19625 1.85 0.0937047 0.944664 0.0136694
1.20264 1.85 0.0923526 0.971801 0.00741959
1.20927 1.85 0.0907308 1 3.70177e-18
ZONE T="<greek>h</greek> = 0.954635 ", I= 38, F=POINT
1.22786 1.86667 0.117239 1 9.51619e-19
1.23339 1.86667 0.115847 1.02422 -0.00629862
1.22029 1.86667 0.114285 0.966686 -0.0127034
1.20864 1.86667 0.112889 0.915538 -0.0184355
1.20579 1.86667 0.112637 0.903015 -0.0194427
1.18373 1.86667 0.110765 0.806141 -0.0269055
1.17437 1.86667 0.109979 0.765037 -0.0300363
1.1604 1.86667 0.108844 0.703692 -0.0345407
1.14161 1.86667 0.107367 0.621156 -0.0403847
1.13539 1.86667 0.106889 0.593866 -0.0422682
1.11663 1.86667 0.105585 0.511503 -0.0473524
1.10951 1.86667 0.105093 0.480246 -0.0492711
1.10643 1.86667 0.104932 0.466713 -0.0498726
1.0857 1.86667 0.103812 0.375698 -0.0540779
1.07106 1.86667 0.10332 0.311447 -0.0557404
1.06197 1.86667 0.102975 0.271548 -0.0569448
1.05381 1.86667 0.102799 0.235728 -0.0574404
1.03616 1.86667 0.103338 0.15829 -0.0544727
1.02173 1.86667 0.104022 0.0949641 -0.0509777
1.00692 1.86667 0.111815 0.0302629 -0.0162732
1 1.86667 0.11547 0 0
1.00525 1.86667 0.117915 0.0231354 0.0105507
1.01065 1.86667 0.120215 0.0469186 0.0204604
1.02893 1.86667 0.128354 0.127392 0.0555537
1.04334 1.86667 0.135815 0.190876 0.0878071
1.0529 1.86667 0.136692 0.232862 0.0913285
1.07892 1.86667 0.139179 0.34714 0.101356
1.08318 1.86667 0.139097 0.365819 0.100854
1.10837 1.86667 0.138288 0.476346 0.0964417
1.11051 1.86667 0.138094 0.485743 0.0955185
1.13631 1.86667 0.135474 0.59889 0.0831439
1.13925 1.86667 0.135074 0.611737 0.0812893
1.16315 1.86667 0.131458 0.716523 0.0646044
1.16741 1.86667 0.13071 0.735197 0.0611757
1.18875 1.86667 0.126605 0.828691 0.0424353
1.19897 1.86667 0.124375 0.87347 0.0322991
1.21054 1.86667 0.12173 0.92414 0.0202976
1.22786 1.86667 0.117239 1 9.51619e-19
ZONE T="<greek>h</greek> = 0.963158 ", I= 36, F=POINT
1.23804 1.88333 0.144244 1 6.36134e-20
1.24173 1.88333 0.144714 1.01729 0.00221435
1.23683 1.88333 0.146118 0.994284 0.00879202
1.21863 1.88333 0.151159 0.908856 0.0324185
1.20557 1.88333 0.154324 0.847569 0.0472457
1.20125 1.88333 0.155366 0.827261 0.0521292
1.18384 1.88333 0.159061 0.745518 0.0694392
1.17668 1.88333 0.160425 0.711921 0.0758269
1.15824 1.88333 0.163545 0.625383 0.0904333
1.14967 1.88333 0.164671 0.58516 0.0957011
1.13081 1.88333 0.166853 0.496596 0.105902
1.12126 1.88333 0.167304 0.451798 0.108001
1.10037 1.88333 0.168053 0.353727 0.111475
1.09313 1.88333 0.167323 0.319723 0.108029
1.06744 1.88333 0.164778 0.199185 0.0960349
1.06561 1.88333 0.163849 0.190598 0.0916673
1.06335 1.88333 0.162762 0.179977 0.0865594
1.04252 1.88333 0.152796 0.0822033 0.0397377
1.025 1.88333 0.144337 0 0
1.04102 1.88333 0.135945 0.0752362 -0.0393574
1.04758 1.88333 0.132507 0.106024 -0.0554836
1.05016 1.88333 0.132422 0.118138 -0.0558765
1.07175 1.88333 0.131906 0.219456 -0.0582531
1.0781 1.88333 0.131751 0.249283 -0.0589666
1.07886 1.88333 0.131737 0.252845 -0.0590322
1.10633 1.88333 0.132863 0.381787 -0.0536928
1.11313 1.88333 0.133161 0.413712 -0.05228
1.14187 1.88333 0.135105 0.548604 -0.0430962
1.14212 1.88333 0.135121 0.549766 -0.0430175
1.14282 1.88333 0.135179 0.553067 -0.0427441
1.16741 1.88333 0.137179 0.668466 -0.0333063
1.17549 1.88333 0.137869 0.706397 -0.0300521
1.19099 1.88333 0.139237 0.779166 -0.023597
1.20654 1.88333 0.140627 0.852127 -0.0170409
1.21577 1.88333 0.141487 0.89545 -0.0129849
1.23804 1.88333 0.144244 1 6.36134e-20
ZONE T="<greek>h</greek> = 0.971682 ", I= 33, F=POINT
1.23888 1.9 0.172101 1 0
1.25007 1.9 0.173582 1.05919 0.00818583
1.23717 1.9 0.177604 0.990767 0.0290845
1.23143 1.9 0.179305 0.960351 0.0379116
1.21326 1.9 0.18423 0.863955 0.0634237
1.20788 1.9 0.185514 0.835473 0.0700544
1.18737 1.9 0.190013 0.726736 0.0932363
1.1806 1.9 0.1913 0.690848 0.0998422
1.16045 1.9 0.19437 0.584079 0.115472
1.15335 1.9 0.195305 0.546461 0.120199
1.13289 1.9 0.196547 0.438102 0.126142
1.1241 1.9 0.19696 0.391542 0.128058
1.10472 1.9 0.195073 0.28902 0.117466
1.09149 1.9 0.193722 0.218994 0.109906
1.07981 1.9 0.187967 0.157369 0.0790743
1.06635 1.9 0.181302 0.0863246 0.0433761
1.05762 1.9 0.176863 0.0402047 0.0196047
1.05 1.9 0.173205 0 0
1.06047 1.9 0.167398 0.0556138 -0.0304151
1.07107 1.9 0.161242 0.111919 -0.0626822
1.08862 1.9 0.160898 0.204828 -0.0639578
1.10074 1.9 0.160655 0.269006 -0.0648675
1.11104 1.9 0.161107 0.323526 -0.0621599
1.12424 1.9 0.161671 0.393415 -0.0587638
1.14314 1.9 0.162931 0.493406 -0.0515089
1.14918 1.9 0.163317 0.525363 -0.04928
1.16895 1.9 0.164986 0.629997 -0.0398292
1.17385 1.9 0.165396 0.655901 -0.0375085
1.17531 1.9 0.165528 0.66367 -0.036766
1.19824 1.9 0.167653 0.784995 -0.0248049
1.20725 1.9 0.168505 0.832639 -0.0200172
1.2228 1.9 0.170036 0.914899 -0.0114284
1.23888 1.9 0.172101 1 1.46944e-16
ZONE T="<greek>h</greek> = 0.980205 ", I= 31, F=POINT
1.2432 1.91667 0.200331 1 1.28911e-18
1.25841 1.91667 0.202449 1.0903 0.0135242
1.24079 1.91667 0.208237 0.985214 0.0468476
1.23571 1.91667 0.210011 0.954861 0.0570819
1.23107 1.91667 0.211399 0.927214 0.065049
1.20886 1.91667 0.217265 0.794816 0.098554
1.20211 1.91667 0.218873 0.754602 0.107698
1.17804 1.91667 0.223267 0.611217 0.132333
1.17677 1.91667 0.223487 0.603643 0.133566
1.17575 1.91667 0.22356 0.597613 0.133938
1.14588 1.91667 0.225835 0.419876 0.145622
1.14476 1.91667 0.225689 0.413257 0.144688
1.13836 1.91667 0.225036 0.37526 0.140411
1.1188 1.91667 0.222963 0.259102 0.126884
1.1153 1.91667 0.222624 0.238302 0.124651
1.09493 1.91667 0.211916 0.117848 0.0597448
1.075 1.91667 0.202072 0 0
1.08442 1.91667 0.197052 0.0562835 -0.029263
1.09775 1.91667 0.189733 0.135982 -0.0719527
1.10158 1.91667 0.189646 0.158776 -0.0722365
1.10589 1.91667 0.189774 0.184363 -0.0712055
1.13327 1.91667 0.190054 0.347143 -0.0678596
1.14375 1.91667 0.190717 0.409414 -0.0632724
1.15649 1.91667 0.191489 0.485055 -0.0579006
1.17595 1.91667 0.193158 0.600669 -0.0467811
1.18115 1.91667 0.193603 0.631578 -0.0438146
1.19636 1.91667 0.195111 0.72186 -0.0339168
1.20576 1.91667 0.196027 0.777704 -0.02789
1.20874 1.91667 0.196326 0.795403 -0.0259316
1.22909 1.91667 0.198452 0.916226 -0.012042
1.2432 1.91667 0.200331 1 1.28911e-18
ZONE T="<greek>h</greek> = 0.988729 ", I= 30, F=POINT
1.2619 1.93333 0.233046 1 -2.6784e-18
1.26675 1.93333 0.231316 1.0298 -0.0110703
1.24344 1.93333 0.22796 0.885592 -0.0299233
1.2332 1.93333 0.226541 0.822199 -0.0378662
1.21157 1.93333 0.224141 0.688479 -0.0509506
1.21014 1.93333 0.223977 0.679635 -0.0518493
1.2092 1.93333 0.223879 0.673792 -0.0523756
1.18665 1.93333 0.221551 0.53438 -0.064939
1.17174 1.93333 0.220269 0.442178 -0.0716617
1.1682 1.93333 0.219962 0.42026 -0.0732697
1.14517 1.93333 0.218587 0.277972 -0.0799096
1.14496 1.93333 0.218575 0.276664 -0.0799707
1.14385 1.93333 0.218573 0.269823 -0.0798941
1.11965 1.93333 0.218573 0.120335 -0.077948
1.11467 1.93333 0.221932 0.0898968 -0.056802
1.1 1.93333 0.23094 0 0
1.11018 1.93333 0.236156 0.063294 0.0313953
1.12481 1.93333 0.244732 0.154297 0.0831815
1.13123 1.93333 0.248302 0.194239 0.104714
1.13533 1.93333 0.25061 0.219782 0.118634
1.15476 1.93333 0.253118 0.33996 0.132564
1.1659 1.93333 0.254692 0.408881 0.141387
1.18108 1.93333 0.253615 0.502504 0.133519
1.19055 1.93333 0.252911 0.560983 0.12841
1.2094 1.93333 0.249379 0.677057 0.105081
1.21328 1.93333 0.24857 0.700943 0.0997769
1.22877 1.93333 0.244282 0.79629 0.0720468
1.23592 1.93333 0.242342 0.84031 0.059495
1.23746 1.93333 0.241877 0.84977 0.0564988
1.2619 1.93333 0.233046 1 -2.6784e-18
ZONE T="<greek>h</greek> = 0.997252 ", I= 27, F=POINT
1.27279 1.95 0.259808 1 0
1.25218 1.95 0.256449 0.860553 -0.0227279
1.24815 1.95 0.255881 0.833313 -0.0265733
1.2269 1.95 0.253214 0.689518 -0.0446152
1.22031 1.95 0.252461 0.644938 -0.0497115
1.20481 1.95 0.250713 0.540005 -0.0615349
1.19509 1.95 0.249702 0.474252 -0.0683762
1.1796 1.95 0.24848 0.369468 -0.076643
1.16703 1.95 0.247589 0.284405 -0.0826731
1.15315 1.95 0.247453 0.190459 -0.0835959
1.14126 1.95 0.247442 0.110003 -0.0836671
1.125 1.95 0.259806 6.69845e-06 -4.87257e-06
1.125 1.95 0.259807 0 0
1.125 1.95 0.259807 4.87846e-06 2.71243e-06
1.125 1.95 0.259808 1.07521e-05 6.01306e-06
1.1285 1.95 0.261521 0.0237008 0.0116013
1.13145 1.95 0.262963 0.0436318 0.0213566
1.15485 1.95 0.265161 0.201991 0.0362269
1.16121 1.95 0.265408 0.245039 0.0378976
1.18398 1.95 0.264904 0.399119 0.0344886
1.18965 1.95 0.264814 0.437462 0.0338763
1.21322 1.95 0.263684 0.596971 0.0262267
1.21807 1.95 0.263493 0.629737 0.0249383
1.24291 1.95 0.262015 0.797841 0.0149351
1.24653 1.95 0.261821 0.822316 0.0136207
1.27122 1.95 0.260136 0.989402 0.00221883
1.27279 1.95 0.259808 1 0
